      22
 i =        0, time =        0.000, E =       -88.4574778270
  C        -4.1149435055       -1.0124685236        9.1190332533
  H        -4.9408503750       -0.2765667861        9.3576158727
  H        -4.6383809750       -2.0254453215        8.9212098526
  H        -3.4446723800       -1.0839481543       10.0660562769
  C        -3.3166225572       -0.3509690452        7.8477484402
  O        -2.0626306831       -0.3078839600        7.6630330424
  N        -4.2099123108        0.3560366488        7.0076214866
  H        -5.2709995516        0.6149753819        7.2654095717
  C        -3.8323088858        0.9279943867        5.5961906860
  H        -2.8412064219        0.3653566290        5.3140995706
  C        -5.0030938248        0.6244302746        4.6559684334
  H        -5.9820040994        0.9692130424        5.0702278066
  H        -4.9709674490        1.3440440468        3.6789388893
  H        -5.0010217846       -0.4622323408        4.3599819549
  C        -3.2260039785        2.4922627507        5.6252978221
  O        -3.8133485745        3.5042116751        5.0309622162
  N        -1.8649778954        2.5538567382        6.2505985068
  H        -1.5868551647        1.6673734952        6.7396934019
  C        -0.9558901329        3.8257579880        6.2432006985
  H         0.1117203818        3.5001124299        5.8638818189
  H        -1.3350126664        4.6012086839        5.4948815207
  H        -0.7795291594        4.2018446805        7.3036951941
      22
 i =        5, time =        2.500, E =       -88.4613762420
  C        -4.1207555011       -1.0024898948        9.1167667738
  H        -4.9634517861       -0.3031558775        9.3696866849
  H        -4.6290499628       -2.0226298566        8.8881568442
  H        -3.4712740030       -1.0842488736       10.0772394353
  C        -3.3229460079       -0.3487690342        7.8583716603
  O        -2.0627492029       -0.3137001100        7.6641240728
  N        -4.2090308756        0.3673684041        6.9951036487
  H        -5.2534483113        0.6040827363        7.2657568572
  C        -3.8355556578        0.9369726454        5.5877915207
  H        -2.8498615835        0.3849395461        5.3000616049
  C        -4.9906502049        0.6286247827        4.6519283473
  H        -6.0065966501        0.9535011182        5.0655641706
  H        -4.9527967203        1.3487294348        3.7142946664
  H        -5.0002204573       -0.4812784792        4.3313426278
  C        -3.2301494358        2.4913910093        5.6211314051
  O        -3.8067923535        3.5050477237        5.0529705986
  N        -1.8646649680        2.5579870243        6.2395967843
  H        -1.6064335103        1.6519657351        6.7394765993
  C        -0.9515493425        3.8184566291        6.2385786671
  H         0.0380158756        3.4478892865        5.8664776679
  H        -1.3330736371        4.5553526751        5.5279289151
  H        -0.8346009041        4.2436951020        7.2596104217
      22
 i =       10, time =        5.000, E =       -88.4634736755
  C        -4.1241203543       -0.9942304199        9.1151331598
  H        -5.0015288941       -0.3185959986        9.3880213247
  H        -4.6058349564       -2.0115347018        8.8530598117
  H        -3.4989844938       -1.0878307940       10.0712260970
  C        -3.3343923330       -0.3443260760        7.8733234999
  O        -2.0589923447       -0.3219388650        7.6653684815
  N        -4.2136233140        0.3818234038        6.9809722007
  H        -5.2060019050        0.5766815787        7.2657865693
  C        -3.8262217622        0.9462970265        5.5863167451
  H        -2.8763549482        0.3986409987        5.2855617210
  C        -4.9840321733        0.6372581995        4.6372012829
  H        -6.0357063684        0.9286856302        5.0709678472
  H        -4.9266968158        1.3316403739        3.7584055593
  H        -5.0044043985       -0.4892981590        4.3042994514
  C        -3.2316341480        2.4947853399        5.6171413687
  O        -3.7993205905        3.5036491188        5.0765003125
  N        -1.8728840562        2.5615353440        6.2255864621
  H        -1.6129457023        1.6347907556        6.7458645016
  C        -0.9475280917        3.8024377882        6.2352261873
  H        -0.0125273021        3.3953191499        5.8645976722
  H        -1.3528783623        4.5378054593        5.5359823567
  H        -0.8898819655        4.2981762797        7.2388133999
      22
 i =       15, time =        7.500, E =       -88.4623397301
  C        -4.1279892334       -0.9864944762        9.1135938795
  H        -5.0450952102       -0.3290634705        9.4070683624
  H        -4.5722376513       -1.9971592796        8.8170974982
  H        -3.5195313351       -1.0949293121       10.0570557804
  C        -3.3467680789       -0.3354647780        7.8884130364
  O        -2.0546411087       -0.3325293550        7.6675815421
  N        -4.2159599541        0.3963548897        6.9673333906
  H        -5.1750077210        0.5463935745        7.2719117301
  C        -3.8090899425        0.9561264072        5.5914044386
  H        -2.9019228002        0.3971133198        5.2686580588
  C        -4.9861941696        0.6448742929        4.6187095136
  H        -6.0487371036        0.8932086185        5.0770348011
  H        -4.8954216431        1.3194418894        3.7750746194
  H        -5.0097012309       -0.4735158968        4.2832105564
  C        -3.2286188581        2.4997601341        5.6154718139
  O        -3.7931394612        3.5029615147        5.0993375944
  N        -1.8882913423        2.5601200790        6.2114324364
  H        -1.6125934434        1.6348156239        6.7473951136
  C        -0.9497761909        3.7813259742        6.2348370958
  H        -0.0094351848        3.3398554429        5.8530340124
  H        -1.3902258825        4.5476774302        5.5118879696
  H        -0.9383241971        4.3553625523        7.2383111158
      22
 i =       20, time =       10.000, E =       -88.4635063510
  C        -4.1357051921       -0.9769674805        9.1115878695
  H        -5.0795428237       -0.3442652148        9.4206510321
  H        -4.5345805475       -1.9881362049        8.7801827541
  H        -3.5244949283       -1.1053926594       10.0466004197
  C        -3.3554655417       -0.3207311998        7.8998207856
  O        -2.0529023465       -0.3450874931        7.6715823366
  N        -4.2104423043        0.4085124171        6.9559390851
  H        -5.1953035046        0.5235617525        7.2874955316
  C        -3.7905649072        0.9662969388        5.6007061814
  H        -2.9090979667        0.3733574881        5.2482407933
  C        -4.9962965671        0.6491563375        4.6032483901
  H        -6.0387013419        0.8518873883        5.0774600764
  H        -4.8627517214        1.3332656651        3.7396024438
  H        -5.0124145791       -0.4393067403        4.2671613634
  C        -3.2204501453        2.5028945042        5.6176681305
  O        -3.7904793179        3.5061988158        5.1195336845
  N        -1.9078180332        2.5523886897        6.1994758512
  H        -1.6107115395        1.6565810832        6.7384666351
  C        -0.9595715359        3.7617285217        6.2349017458
  H         0.0318214440        3.2943236207        5.8416432727
  H        -1.4249588758        4.5566445445        5.4764201749
  H        -0.9751181729        4.3969411252        7.2379225079
      22
 i =       25, time =       12.500, E =       -88.4604174968
  C        -4.1482281155       -0.9647448147        9.1092783024
  H        -5.0977129344       -0.3684099199        9.4257866810
  H        -4.4979126780       -1.9892505378        8.7428277275
  H        -3.5130272656       -1.1177008059       10.0428976157
  C        -3.3573697116       -0.3000153999        7.9053797576
  O        -2.0555568432       -0.3590174541        7.6778314153
  N        -4.2009274823        0.4174640887        6.9505239369
  H        -5.2402062573        0.5080973392        7.2985331085
  C        -3.7740906646        0.9749232658        5.6099260913
  H        -2.8992213729        0.3331282121        5.2287158082
  C        -5.0093210356        0.6549432737        4.5902375266
  H        -6.0168463503        0.8145051369        5.0727242388
  H        -4.8366415564        1.3611590718        3.6729087886
  H        -5.0092851303       -0.4079202113        4.2504708747
  C        -3.2091129429        2.5022874657        5.6234631575
  O        -3.7922082596        3.5145211664        5.1368172508
  N        -1.9273527198        2.5407483865        6.1908798367
  H        -1.6083089068        1.6857800691        6.7233721882
  C        -0.9738948357        3.7471557445        6.2313895827
  H         0.0710872660        3.2775825785        5.8465424685
  H        -1.4401266218        4.5407921476        5.4497241137
  H        -0.9980228194        4.4082507212        7.2223442236
      22
 i =       30, time =       15.000, E =       -88.4589766001
  C        -4.1625863068       -0.9517048005        9.1077396230
  H        -5.1048561174       -0.3975432322        9.4242133918
  H        -4.4637516211       -1.9961150178        8.7080126085
  H        -3.4936881653       -1.1285224517       10.0375318368
  C        -3.3522184382       -0.2745549442        7.9052212891
  O        -2.0624253536       -0.3737468097        7.6860702293
  N        -4.1943908292        0.4237971824        6.9541011800
  H        -5.2632753149        0.4974380044        7.2881545095
  C        -3.7601059137        0.9788138838        5.6143600525
  H        -2.8881035291        0.2928869113        5.2188730435
  C        -5.0180061203        0.6683846094        4.5747604201
  H        -6.0061575515        0.7915781124        5.0693971738
  H        -4.8274029194        1.3775829173        3.6157468922
  H        -4.9978012919       -0.3986704817        4.2275690099
  C        -3.1993636853        2.4986681012        5.6305774394
  O        -3.7974414455        3.5263730213        5.1516632320
  N        -1.9426719469        2.5296075876        6.1859619419
  H        -1.6018658785        1.6976283412        6.7131543985
  C        -0.9894250529        3.7379931577        6.2218550221
  H         0.0804141665        3.2975094560        5.8754327769
  H        -1.4309975592        4.4948801916        5.4375610189
  H        -1.0079552887        4.3860497827        7.1908540129
      22
 i =       35, time =       17.500, E =       -88.4652138455
  C        -4.1738511145       -0.9419211075        9.1062218498
  H        -5.1154535103       -0.4224835968        9.4212944908
  H        -4.4318434740       -1.9986110710        8.6802503644
  H        -3.4776354912       -1.1340336822       10.0209622216
  C        -3.3427417583       -0.2466934432        7.9016855678
  O        -2.0716666560       -0.3893149590        7.6954173139
  N        -4.1936195075        0.4288117988        6.9658830128
  H        -5.2465123660        0.4907536765        7.2533658276
  C        -3.7488710875        0.9757196870        5.6111121514
  H        -2.8882532149        0.2670407348        5.2248911690
  C        -5.0179322836        0.6895762910        4.5538390764
  H        -6.0191976248        0.7884188915        5.0705730422
  H        -4.8405089521        1.3713573472        3.5915477351
  H        -4.9778996492       -0.4074130710        4.2000674115
  C        -3.1966219518        2.4943394332        5.6359927599
  O        -3.8047204362        3.5390804329        5.1648924528
  N        -1.9498104117        2.5213719645        6.1854795075
  H        -1.5897555661        1.6787895564        6.7132096827
  C        -1.0040863971        3.7317872356        6.2064453719
  H         0.0559407296        3.3475955831        5.9245178967
  H        -1.4050826969        4.4330597562        5.4291010392
  H        -1.0088414674        4.3404662146        7.1573897063
      22
 i =       40, time =       20.000, E =       -88.4654873774
  C        -4.1785332013       -0.9373542920        9.1033741348
  H        -5.1396730623       -0.4372249591        9.4213403176
  H        -4.4029581446       -1.9901086884        8.6621303110
  H        -3.4708288080       -1.1319627541        9.9922864238
  C        -3.3336069923       -0.2195378268        7.8983071932
  O        -2.0812303641       -0.4055345082        7.7052910031
  N        -4.1958278438        0.4342176197        6.9815113083
  H        -5.2090810238        0.4881137815        7.2055642234
  C        -3.7417881106        0.9658374124        5.6000747272
  H        -2.8999771150        0.2595848038        5.2460351804
  C        -5.0105473348        0.7128450094        4.5295953269
  H        -6.0423054135        0.8032459392        5.0677713101
  H        -4.8734316159        1.3506009801        3.5972250675
  H        -4.9531132575       -0.4119041229        4.1754638925
  C        -3.2036830563        2.4914295272        5.6377837917
  O        -3.8128645215        3.5501335416        5.1773147119
  N        -1.9461734880        2.5143608385        6.1907437180
  H        -1.5777799648        1.6406443299        6.7154572800
  C        -1.0179353216        3.7245455959        6.1882910395
  H         0.0207997496        3.4088204107        5.9807019809
  H        -1.3787499356        4.3835083392        5.4003794570
  H        -1.0072012427        4.2910251215        7.1431261313
      22
 i =       45, time =       22.500, E =       -88.4615320297
  C        -4.1772204411       -0.9364877771        9.0981170951
  H        -5.1705731588       -0.4452897621        9.4231454329
  H        -4.3795169769       -1.9732532521        8.6519061371
  H        -3.4705255492       -1.1226764338        9.9614591655
  C        -3.3294880139       -0.1960437190        7.8984442059
  O        -2.0887950112       -0.4210259386        7.7153199409
  N        -4.1944018164        0.4417472774        6.9950299818
  H        -5.1978749739        0.4896080539        7.1632281573
  C        -3.7413309096        0.9522050956        5.5833409330
  H        -2.9112234590        0.2626154213        5.2745661897
  C        -5.0003466656        0.7306419445        4.5087967395
  H        -6.0515885060        0.8308337887        5.0491783962
  H        -4.9169035749        1.3394750641        3.6047310727
  H        -4.9288397432       -0.3947028578        4.1592712713
  C        -3.2187809976        2.4908402242        5.6361289137
  O        -3.8209911295        3.5580801044        5.1896381264
  N        -1.9329027960        2.5051682159        6.2015209366
  H        -1.5728000615        1.6038286014        6.7085979340
  C        -1.0337109975        3.7151357810        6.1717960586
  H         0.0154754694        3.4574184391        6.0284060688
  H        -1.3646627686        4.3662394409        5.3367017933
  H        -1.0111365644        4.2546438408        7.1580306960
      22
 i =       50, time =       25.000, E =       -88.4625542910
  C        -4.1736337218       -0.9354064339        9.0900622922
  H        -5.1906513049       -0.4551246687        9.4220013885
  H        -4.3644281722       -1.9586560048        8.6441809338
  H        -3.4683420740       -1.1084060749        9.9435117632
  C        -3.3326491933       -0.1787684818        7.9043678785
  O        -2.0929719891       -0.4346573620        7.7250877555
  N        -4.1872090604        0.4530942336        7.0020378506
  H        -5.2337759716        0.4934252902        7.1368022585
  C        -3.7495446235        0.9394922763        5.5638693532
  H        -2.9054337038        0.2627098524        5.2997866004
  C        -4.9905120208        0.7384586938        4.4974782890
  H        -6.0353839096        0.8654916453        5.0119158496
  H        -4.9606479606        1.3609404848        3.5845077856
  H        -4.9099459340       -0.3563221554        4.1507302056
  C        -3.2368153968        2.4919492618        5.6328232383
  O        -3.8283454443        3.5625654702        5.2024208634
  N        -1.9149257791        2.4915339914        6.2149932816
  H        -1.5748808822        1.5791702404        6.6893160887
  C        -1.0518578617        3.7073116223        6.1587640406
  H         0.0542769888        3.4820693587        6.0603943371
  H        -1.3605398203        4.3717099456        5.2572371893
  H        -1.0278635227        4.2362456146        7.1881076076
      22
 i =       55, time =       27.500, E =       -88.4569821693
  C        -4.1705173120       -0.9312151565        9.0799884675
  H        -5.1887416889       -0.4712318177        9.4148253918
  H        -4.3589213046       -1.9562660375        8.6342062144
  H        -3.4598757521       -1.0910807144        9.9460674114
  C        -3.3419596713       -0.1697409965        7.9163990981
  O        -2.0942107360       -0.4458966828        7.7344588567
  N        -4.1812639010        0.4695380085        7.0011915785
  H        -5.2784085139        0.4961529384        7.1248160481
  C        -3.7651526794        0.9309434919        5.5440275105
  H        -2.8789535071        0.2555352725        5.3152113024
  C        -4.9812757850        0.7395725115        4.4937257781
  H        -6.0019859947        0.9025504772        4.9653495166
  H        -4.9971266849        1.4096036590        3.5450545710
  H        -4.8993970515       -0.3163803976        4.1425585989
  C        -3.2523197932        2.4928861062        5.6300283083
  O        -3.8349635103        3.5640241679        5.2159079194
  N        -1.8982989171        2.4741725825        6.2273313183
  H        -1.5767388202        1.5617931872        6.6635637208
  C        -1.0662855608        3.7052815225        6.1488803622
  H         0.1035136198        3.4881042322        6.0781359249
  H        -1.3578581758        4.3758180268        5.1973585345
  H        -1.0606685209        4.2326469705        7.2072706464
      22
 i =       60, time =       30.000, E =       -88.4515937896
  C        -4.1673747876       -0.9246015744        9.0699024404
  H        -5.1687875482       -0.4904036035        9.4026288571
  H        -4.3608050691       -1.9656986005        8.6226521002
  H        -3.4508723046       -1.0713510316        9.9619322127
  C        -3.3541609046       -0.1695315327        7.9321279088
  O        -2.0943600298       -0.4544081393        7.7434947111
  N        -4.1835861781        0.4908981014        6.9934416459
  H        -5.2898905258        0.4965062116        7.1234583502
  C        -3.7827596454        0.9269351926        5.5254310705
  H        -2.8484074666        0.2509069059        5.3205960201
  C        -4.9712125370        0.7416712751        4.4900125313
  H        -5.9746351396        0.9398059091        4.9259165026
  H        -5.0187144135        1.4594546779        3.5202474789
  H        -4.8983871557       -0.3008310571        4.1245691785
  C        -3.2615111011        2.4913837659        5.6293194855
  O        -3.8413699484        3.5632036227        5.2296928943
  N        -1.8881444074        2.4564300805        6.2349190537
  H        -1.5688662262        1.5377549023        6.6406975642
  C        -1.0704961466        3.7102714501        6.1422479436
  H         0.1236344032        3.4848133144        6.0847400547
  H        -1.3522781925        4.3631908698        5.1789766203
  H        -1.1080045276        4.2406932115        7.1968371030
      22
 i =       65, time =       32.500, E =       -88.4568234847
  C        -4.1617386881       -0.9192577737        9.0619045363
  H        -5.1477674789       -0.5036555014        9.3899787112
  H        -4.3653249386       -1.9768886616        8.6151092363
  H        -3.4510195813       -1.0498655829        9.9769381921
  C        -3.3659308692       -0.1767622264        7.9467373942
  O        -2.0958166538       -0.4598276766        7.7523264532
  N        -4.1948154572        0.5152497737        6.9814506111
  H        -5.2617316263        0.4959390428        7.1300095980
  C        -3.7961385523        0.9267596262        5.5097529594
  H        -2.8350254541        0.2601010120        5.3176048090
  C        -4.9598791355        0.7483855314        4.4802912807
  H        -5.9720435653        0.9759764335        4.9057480405
  H        -5.0183434155        1.4912473251        3.5304281438
  H        -4.9080718393       -0.3155615392        4.0930781956
  C        -3.2626824138        2.4859647278        5.6313000686
  O        -3.8476783759        3.5607672972        5.2429603941
  N        -1.8866841177        2.4407407059        6.2360546122
  H        -1.5476924260        1.5023133763        6.6239487977
  C        -1.0628066507        3.7198820604        6.1394093199
  H         0.1000391724        3.4784466334        6.0832404375
  H        -1.3448576841        4.3338731916        5.2010986839
  H        -1.1650736199        4.2610357122        7.1550293158
      22
 i =       70, time =       35.000, E =       -88.4601517677
  C        -4.1524991892       -0.9187531168        9.0574255526
  H        -5.1423747498       -0.5029747654        9.3810239598
  H        -4.3679946238       -1.9802357976        8.6171049029
  H        -3.4643073296       -1.0284411139        9.9824822496
  C        -3.3746902170       -0.1884780210        7.9545953351
  O        -2.1005067361       -0.4619505322        7.7611105435
  N        -4.2090956333        0.5398271481        6.9684964542
  H        -5.2249404214        0.4965076377        7.1436708245
  C        -3.8017716024        0.9301911207        5.4986913424
  H        -2.8481335010        0.2849607454        5.3070963396
  C        -4.9501205023        0.7572696495        4.4629323871
  H        -5.9884787202        1.0063805103        4.9039788578
  H        -4.9924914387        1.5021706739        3.5720888349
  H        -4.9294097201       -0.3386441593        4.0553627702
  C        -3.2559882473        2.4767525975        5.6355333526
  O        -3.8533823679        3.5569248308        5.2554230124
  N        -1.8927576352        2.4268847527        6.2314135318
  H        -1.5192997983        1.4690198132        6.6077013482
  C        -1.0467995890        3.7291099980        6.1411623175
  H         0.0479330225        3.4704337840        6.0772092637
  H        -1.3414415270        4.3019381602        5.2396372202
  H        -1.2262686314        4.2979251499        7.0970520704
      22
 i =       75, time =       37.500, E =       -88.4575205312
  C        -4.1425212714       -0.9236634939        9.0572337062
  H        -5.1527051945       -0.4885340433        9.3745827328
  H        -4.3668454306       -1.9746753549        8.6304079872
  H        -3.4855568218       -1.0097593247        9.9812186835
  C        -3.3790903259       -0.2014132596        7.9514015510
  O        -2.1090246338       -0.4608429353        7.7698201366
  N        -4.2183805648        0.5623190070        6.9570784407
  H        -5.2250623436        0.4989751511        7.1652348264
  C        -3.8004991476        0.9376941440        5.4932926712
  H        -2.8794983771        0.3157427036        5.2887976495
  C        -4.9462728593        0.7634108226        4.4415816389
  H        -6.0017442145        1.0242576031        4.9103966310
  H        -4.9425953126        1.5068261577        3.6200861155
  H        -4.9607468733       -0.3436248892        4.0215380833
  C        -3.2432889777        2.4653962405        5.6407284485
  O        -3.8533886025        3.5531417341        5.2706548354
  N        -1.9029019160        2.4139829999        6.2228203614
  H        -1.4940791061        1.4551032676        6.5848847891
  C        -1.0305928947        3.7333019818        6.1485751943
  H         0.0100478370        3.4559786866        6.0704387296
  H        -1.3499001985        4.2861628317        5.2587919251
  H        -1.2865049062        4.3547823443        7.0448132151
      22
 i =       80, time =       40.000, E =       -88.4603724291
  C        -4.1371457857       -0.9312096452        9.0610103987
  H        -5.1640512978       -0.4680448517        9.3654922699
  H        -4.3631298076       -1.9687389189        8.6525888414
  H        -3.5036908703       -0.9959397499        9.9843324447
  C        -3.3797719382       -0.2131047838        7.9359713088
  O        -2.1201081204       -0.4568966964        7.7780228715
  N        -4.2213003049        0.5802699062        6.9494382816
  H        -5.2655403185        0.5045459122        7.1893911621
  C        -3.7968125542        0.9498792252        5.4935534616
  H        -2.9071978751        0.3348085855        5.2615844084
  C        -4.9505823841        0.7631290035        4.4229874414
  H        -5.9953083294        1.0265873637        4.9141966798
  H        -4.8738415863        1.5293202719        3.6407164858
  H        -4.9975899491       -0.3198851577        3.9962479593
  C        -3.2277265706        2.4541224081        5.6451874337
  O        -3.8503775753        3.5467323212        5.2868918873
  N        -1.9130339423        2.4026872910        6.2120969837
  H        -1.4789402603        1.4653913084        6.5534000826
  C        -1.0232329831        3.7320283844        6.1609006811
  H         0.0255214525        3.4298993717        6.0665920649
  H        -1.3701220228        4.2903108844        5.2429436738
  H        -1.3392649563        4.4259023418        7.0091849163
      22
 i =       85, time =       42.500, E =       -88.4599484331
  C        -4.1398717357       -0.9374037561        9.0674675624
  H        -5.1634451155       -0.4498070544        9.3504015637
  H        -4.3601384891       -1.9747517398        8.6793359351
  H        -3.5102226271       -0.9870342737       10.0005150991
  C        -3.3797309977       -0.2224228819        7.9105848202
  O        -2.1306717705       -0.4508265892        7.7848626860
  N        -4.2230217278        0.5921321219        6.9477494033
  H        -5.3043440990        0.5161290067        7.2033516917
  C        -3.7949266974        0.9656632233        5.4983214592
  H        -2.9143723386        0.3294476602        5.2263212190
  C        -4.9617495311        0.7591369448        4.4105816403
  H        -5.9694523534        1.0170795853        4.9096334274
  H        -4.7942535821        1.5735134280        3.6258049471
  H        -5.0343613521       -0.2786721503        3.9761623080
  C        -3.2131678060        2.4448151694        5.6472607679
  O        -3.8452058508        3.5365788755        5.3046061084
  N        -1.9197054785        2.3957931829        6.2005420078
  H        -1.4728122609        1.4879959263        6.5173251927
  C        -1.0269045116        3.7283087721        6.1740129603
  H         0.0792052941        3.4004920484        6.0709976211
  H        -1.3893496903        4.2981006250        5.2101159500
  H        -1.3755694054        4.4943825526        6.9853757296
      22
 i =       90, time =       45.000, E =       -88.4524702330
  C        -4.1499364016       -0.9400944184        9.0753792886
  H        -5.1504942040       -0.4373149763        9.3306889618
  H        -4.3603374960       -1.9978520777        8.7085590608
  H        -3.5065627078       -0.9809329688       10.0250486340
  C        -3.3831493347       -0.2295179270        7.8798463332
  O        -2.1370426722       -0.4431873934        7.7895719740
  N        -4.2274995180        0.5979067023        6.9529327608
  H        -5.3088046208        0.5348000645        7.1988575998
  C        -3.7951312019        0.9806440045        5.5051444293
  H        -2.9079845711        0.3052769500        5.1903833089
  C        -4.9743333048        0.7607219005        4.4022097123
  H        -5.9427108761        1.0060368341        4.8991021969
  H        -4.7180803662        1.6127719109        3.6000449680
  H        -5.0661342585       -0.2466767192        3.9519474418
  C        -3.2028969422        2.4383466728        5.6460011515
  O        -3.8379117430        3.5234832486        5.3226902416
  N        -1.9207331911        2.3968509748        6.1889948185
  H        -1.4676370383        1.5012688607        6.4841692225
  C        -1.0372283809        3.7248230202        6.1831486507
  H         0.1207853615        3.3847729489        6.0893449756
  H        -1.3934487986        4.2917473521        5.1861182069
  H        -1.3885411291        4.5414309356        6.9648288073
      22
 i =       95, time =       47.500, E =       -88.4522167229
  C        -4.1632601686       -0.9405628640        9.0835577187
  H        -5.1379559268       -0.4277848381        9.3117278369
  H        -4.3637325220       -2.0295050642        8.7422463254
  H        -3.5016164810       -0.9745827050       10.0432899439
  C        -3.3927625132       -0.2354513363        7.8494175191
  O        -2.1376807170       -0.4335695447        7.7916419639
  N        -4.2340233180        0.5978409800        6.9634803496
  H        -5.2797917661        0.5582521283        7.1781058592
  C        -3.7953750680        0.9891140765        5.5111143946
  H        -2.9081598629        0.2796046233        5.1654333649
  C        -4.9812706153        0.7743301779        4.3942709300
  H        -5.9413578491        1.0062879260        4.8903056777
  H        -4.6618690846        1.6220668776        3.5877757278
  H        -5.0888514204       -0.2407810597        3.9181274877
  C        -3.1980804433        2.4342728903        5.6416290652
  O        -3.8294379772        3.5095331224        5.3404540810
  N        -1.9148667799        2.4068360899        6.1784706953
  H        -1.4576168049        1.4934926179        6.4582912376
  C        -1.0495775626        3.7228489892        6.1855703508
  H         0.1165449100        3.3927973066        6.1234076716
  H        -1.3760542834        4.2649685099        5.1831027629
  H        -1.3777991655        4.5564866933        6.9448790324